# ALK in O2

75 atoms
3 atom types

0 25.000 xlo xhi
0 25.000 ylo yhi
0 25.000 zlo zhi

Masses

1 12.0107  #C
2 1.0080   #H
3 15.9994   #O

Atoms